[Molden Format]
made by pyscf v[2.7.0]
[Atoms] (AU)
Be   1   4     0.00000000000000     0.00000000000000     0.00000000000000
[GTO]
1 0
 s    3 1.00
               71.8876   0.064426309745602
               10.7289    0.36609605537841
               2.22205    0.69593410527216
 s    2 1.00
               1.29548   -0.42106406587915
              0.268881     1.2240701915165
 s    1 1.00
               0.07735                   1
 p    2 1.00
               1.29548    0.20513192373606
              0.268881     0.8825276718939
 p    1 1.00
               0.07735                   1

[6d]
[10f]
[15g]

[MO]
 Sym= A
 Ene=    -4.688384136
 Spin= Alpha
 Occup=    2.00000
   1      0.99280987196005
   2     0.076425018584178
   3     -0.02872670545934
   4                     0
   5                     0
   6                     0
   7                     0
   8                     0
   9                     0
 Sym= A
 Ene=   -0.3056440467
 Spin= Alpha
 Occup=    2.00000
   1     -0.21571231510548
   2      0.22934176850743
   3       0.8223479944005
   4                     0
   5                     0
   6                     0
   7                     0
   8                     0
   9                     0
 Sym= A
 Ene=   0.07140670836
 Spin= Alpha
 Occup=    0.00000
   1                     0
   2                     0
   3                     0
   4      0.08830759266677
   5      0.17214550738845
   6      0.16877928651382
   7      0.28447814512714
   8      0.55455746391628
   9      0.54371336499359
 Sym= A
 Ene=   0.07140670836
 Spin= Alpha
 Occup=    0.00000
   1                     0
   2                     0
   3                     0
   4    -0.059880018336958
   5     -0.15845112486062
   6      0.19294138650666
   7     -0.19290024823751
   8     -0.51044174948526
   9      0.62155026645094
 Sym= A
 Ene=   0.07140670836
 Spin= Alpha
 Occup=    0.00000
   1                     0
   2                     0
   3                     0
   4      0.23352710051321
   5     -0.10572568046184
   6    -0.014350191967909
   7      0.75229495431501
   8     -0.34058957516352
   9    -0.046228369157947
 Sym= A
 Ene=    0.4641948667
 Spin= Alpha
 Occup=    0.00000
   1                     0
   2                     0
   3                     0
   4    -8.4186850830335e-18
   5       1.2100688798276
   6    1.875422065159e-16
   7    9.1825983207236e-17
   8     -0.91983663169452
   9    -1.2999676615917e-16
 Sym= A
 Ene=    0.4641948667
 Spin= Alpha
 Occup=    0.00000
   1                     0
   2                     0
   3                     0
   4       1.2100688798276
   5    -1.1102230246252e-16
   6                     0
   7     -0.91983663169452
   8                     0
   9                     0
 Sym= A
 Ene=    0.4641948667
 Spin= Alpha
 Occup=    0.00000
   1                     0
   2                     0
   3                     0
   4    1.1112495294997e-16
   5    -2.1912522890027e-16
   6       1.2100688798276
   7    8.8924292129158e-17
   8    1.8365196641447e-16
   9     -0.91983663169452
 Sym= A
 Ene=    0.5526109973
 Spin= Alpha
 Occup=    0.00000
   1    -0.013783709738893
   2       1.6447609972564
   3      -1.4560341732472
   4                     0
   5                     0
   6                     0
   7                     0
   8                     0
   9                     0
