[Molden Format]
made by pyscf v[2.7.0]
[Atoms] (AU)
Be   1   4     0.00000000000000     0.00000000000000     0.00000000000000
[GTO]
1 0
 s    3 1.00
             30.167871    0.15432897000252
             5.4951153    0.53532814000875
             1.4871927    0.44463454000726
 s    3 1.00
             1.3148331  -0.099967231525352
             0.3055389    0.39951283609597
             0.0993707    0.70011548068272
 p    3 1.00
             1.3148331    0.15591627764492
             0.3055389     0.6076837497961
             0.0993707    0.39195740921855

[6d]
[10f]
[15g]

[MO]
 Sym= A
 Ene=    -4.483992107
 Spin= Alpha
 Occup=    2.00000
   1      0.99289819173903
   2       0.0261376620675
   3                     0
   4                     0
   5                     0
 Sym= A
 Ene=   -0.2540376938
 Spin= Alpha
 Occup=    2.00000
   1     -0.29388068614475
   2       1.0351470907408
   3                     0
   4                     0
   5                     0
 Sym= A
 Ene=    0.2210859573
 Spin= Alpha
 Occup=    0.00000
   1                     0
   2                     0
   3                     1
   4                     0
   5                     0
 Sym= A
 Ene=    0.2210859573
 Spin= Alpha
 Occup=    0.00000
   1                     0
   2                     0
   3                     0
   4                     1
   5                     0
 Sym= A
 Ene=    0.2210859573
 Spin= Alpha
 Occup=    0.00000
   1                     0
   2                     0
   3                     0
   4                     0
   5                     1
